
     Program PWSCF v.6.4 starts on 26Mar2019 at 14: 9:45 

     This program is part of the open-source Quantum ESPRESSO suite
     for quantum simulation of materials; please cite
         "P. Giannozzi et al., J. Phys.:Condens. Matter 21 395502 (2009);
         "P. Giannozzi et al., J. Phys.:Condens. Matter 29 465901 (2017);
          URL http://www.quantum-espresso.org", 
     in publications or presentations arising from this work. More details at
     http://www.quantum-espresso.org/quote

     Parallel version (MPI), running on     8 processors

     MPI processes distributed on     1 nodes
     R & G space division:  proc/nbgrp/npool/nimage =       8
     Waiting for input...
     Reading input from standard input

     Current dimensions of program PWSCF are:
     Max number of different atomic species (ntypx) = 10
     Max number of k-points (npk) =  40000
     Max angular momentum in pseudopotentials (lmaxx) =  3

     Atomic positions and unit cell read from directory:
     ./SCF-Bands.save/
 
     Message from routine read_upf::
     Pseudo file Mo.pbe-spn-kjpaw_psl.0.2.UPF has been fixed on the fly.
To avoid this message in the future, permanently fix 
 your pseudo files following these instructions: 
https://gitlab.com/QEF/q-e/blob/master/upftools/how_to_fix_upf.md
               file Mo.pbe-spn-kjpaw_psl.0.2.UPF: wavefunction(s)  4D renormalized

     Subspace diagonalization in iterative solution of the eigenvalue problem:
     one sub-group per band group will be used
     scalapack distributed-memory algorithm (size of sub-group:  2*  2 procs)

 
     Parallelization info
     --------------------
     sticks:   dense  smooth     PW     G-vecs:    dense   smooth      PW
     Min          93      37     11                12823     3246     576
     Max          94      38     12                12846     3254     583
     Sum         745     301     91               102641    26003    4629
 


     bravais-lattice index     =            4
     lattice parameter (alat)  =       5.9723  a.u.
     unit-cell volume          =    1167.4582 (a.u.)^3
     number of atoms/cell      =            3
     number of atomic types    =            2
     number of electrons       =        26.00
     number of Kohn-Sham states=           17
     kinetic-energy cutoff     =      30.0000  Ry
     charge density cutoff     =     300.0000  Ry
     Exchange-correlation      =  SLA  PW   PBX  PBC ( 1  4  3  4 0 0)

     celldm(1)=   5.972290  celldm(2)=   0.000000  celldm(3)=   6.328313
     celldm(4)=   0.000000  celldm(5)=   0.000000  celldm(6)=   0.000000

     crystal axes: (cart. coord. in units of alat)
               a(1) = (   1.000000   0.000000   0.000000 )  
               a(2) = (  -0.500000   0.866025   0.000000 )  
               a(3) = (   0.000000   0.000000   6.328313 )  

     reciprocal axes: (cart. coord. in units 2 pi/alat)
               b(1) = (  1.000000  0.577350  0.000000 )  
               b(2) = (  0.000000  1.154701  0.000000 )  
               b(3) = (  0.000000  0.000000  0.158020 )  


     PseudoPot. # 1 for Mo read from file:
     /home/enigma/DataBaseProject/PythonScript/QE_MaterialsDataBase/IntersticialPotentialDB/Calculations/QE_Pseudo/Mo.pbe-spn-kjpaw_psl.0.2.UPF
     MD5 check sum: 4d55e26c65023fa7f2775461318ed04e
     Pseudo is Projector augmented-wave + core cor, Zval = 14.0
     Generated using "atomic" code by A. Dal Corso v.5.0.2 svn rev. 9415
     Shape of augmentation charge: PSQ
     Using radial grid of 1229 points,  6 beta functions with: 
                l(1) =   0
                l(2) =   0
                l(3) =   1
                l(4) =   1
                l(5) =   2
                l(6) =   2
     Q(r) pseudized with 0 coefficients 


     PseudoPot. # 2 for S  read from file:
     /home/enigma/DataBaseProject/PythonScript/QE_MaterialsDataBase/IntersticialPotentialDB/Calculations/QE_Pseudo/s_pbe_v1.4.uspp.F.UPF
     MD5 check sum: 88d86576ff6df21479756cfb9bdac1df
     Pseudo is Ultrasoft + core correction, Zval =  6.0
     Generated by new atomic code, or converted to UPF format
     Using radial grid of  907 points,  6 beta functions with: 
                l(1) =   0
                l(2) =   0
                l(3) =   1
                l(4) =   1
                l(5) =   2
                l(6) =   2
     Q(r) pseudized with  8 coefficients,  rinner =    1.300   1.300   1.300
                                                       1.300   1.300

     atomic species   valence    mass     pseudopotential
        Mo            14.00    95.94000     Mo( 1.00)
        S              6.00    32.06500     S ( 1.00)

     12 Sym. Ops. (no inversion) found


                                    s                        frac. trans.

      isym =  1     identity                                     

 cryst.   s( 1) = (     1          0          0      )
                  (     0          1          0      )
                  (     0          0          1      )

 cart.    s( 1) = (  1.0000000  0.0000000  0.0000000 )
                  (  0.0000000  1.0000000  0.0000000 )
                  (  0.0000000  0.0000000  1.0000000 )


      isym =  2     180 deg rotation - cart. axis [0,1,0]        

 cryst.   s( 2) = (    -1          0          0      )
                  (     1          1          0      )
                  (     0          0         -1      )

 cart.    s( 2) = ( -1.0000000  0.0000000  0.0000000 )
                  (  0.0000000  1.0000000  0.0000000 )
                  (  0.0000000  0.0000000 -1.0000000 )


      isym =  3     120 deg rotation - cryst. axis [0,0,1]       

 cryst.   s( 3) = (     0          1          0      )
                  (    -1         -1          0      )
                  (     0          0          1      )

 cart.    s( 3) = ( -0.5000000 -0.8660254  0.0000000 )
                  (  0.8660254 -0.5000000  0.0000000 )
                  (  0.0000000  0.0000000  1.0000000 )


      isym =  4     120 deg rotation - cryst. axis [0,0,-1]      

 cryst.   s( 4) = (    -1         -1          0      )
                  (     1          0          0      )
                  (     0          0          1      )

 cart.    s( 4) = ( -0.5000000  0.8660254  0.0000000 )
                  ( -0.8660254 -0.5000000  0.0000000 )
                  (  0.0000000  0.0000000  1.0000000 )


      isym =  5     180 deg rotation - cryst. axis [1,-1,0]      

 cryst.   s( 5) = (     0         -1          0      )
                  (    -1          0          0      )
                  (     0          0         -1      )

 cart.    s( 5) = (  0.5000000 -0.8660254  0.0000000 )
                  ( -0.8660254 -0.5000000  0.0000000 )
                  (  0.0000000  0.0000000 -1.0000000 )


      isym =  6     180 deg rotation - cryst. axis [2,1,0]       

 cryst.   s( 6) = (     1          1          0      )
                  (     0         -1          0      )
                  (     0          0         -1      )

 cart.    s( 6) = (  0.5000000  0.8660254  0.0000000 )
                  (  0.8660254 -0.5000000  0.0000000 )
                  (  0.0000000  0.0000000 -1.0000000 )


      isym =  7     inv. 180 deg rotation - cart. axis [0,0,1]   

 cryst.   s( 7) = (     1          0          0      )
                  (     0          1          0      )
                  (     0          0         -1      )

 cart.    s( 7) = (  1.0000000  0.0000000  0.0000000 )
                  (  0.0000000  1.0000000  0.0000000 )
                  (  0.0000000  0.0000000 -1.0000000 )


      isym =  8     inv. 180 deg rotation - cart. axis [1,0,0]   

 cryst.   s( 8) = (    -1          0          0      )
                  (     1          1          0      )
                  (     0          0          1      )

 cart.    s( 8) = ( -1.0000000  0.0000000  0.0000000 )
                  (  0.0000000  1.0000000  0.0000000 )
                  (  0.0000000  0.0000000  1.0000000 )


      isym =  9     inv.  60 deg rotation - cryst. axis [0,0,1]  

 cryst.   s( 9) = (    -1         -1          0      )
                  (     1          0          0      )
                  (     0          0         -1      )

 cart.    s( 9) = ( -0.5000000  0.8660254  0.0000000 )
                  ( -0.8660254 -0.5000000  0.0000000 )
                  (  0.0000000  0.0000000 -1.0000000 )


      isym = 10     inv.  60 deg rotation - cryst. axis [0,0,-1] 

 cryst.   s(10) = (     0          1          0      )
                  (    -1         -1          0      )
                  (     0          0         -1      )

 cart.    s(10) = ( -0.5000000 -0.8660254  0.0000000 )
                  (  0.8660254 -0.5000000  0.0000000 )
                  (  0.0000000  0.0000000 -1.0000000 )


      isym = 11     inv. 180 deg rotation - cryst. axis [0,1,0]  

 cryst.   s(11) = (     1          1          0      )
                  (     0         -1          0      )
                  (     0          0          1      )

 cart.    s(11) = (  0.5000000  0.8660254  0.0000000 )
                  (  0.8660254 -0.5000000  0.0000000 )
                  (  0.0000000  0.0000000  1.0000000 )


      isym = 12     inv. 180 deg rotation - cryst. axis [1,1,0]  

 cryst.   s(12) = (     0         -1          0      )
                  (    -1          0          0      )
                  (     0          0          1      )

 cart.    s(12) = (  0.5000000 -0.8660254  0.0000000 )
                  ( -0.8660254 -0.5000000  0.0000000 )
                  (  0.0000000  0.0000000  1.0000000 )


     point group D_3h (-62m)
     there are  6 classes
     the character table:

       E     2C3   3C2   s_h   2S3   3s_v 
A'_1   1.00  1.00  1.00  1.00  1.00  1.00
A'_2   1.00  1.00 -1.00  1.00  1.00 -1.00
E'     2.00 -1.00  0.00  2.00 -1.00  0.00
A''1   1.00  1.00  1.00 -1.00 -1.00 -1.00
A''2   1.00  1.00 -1.00 -1.00 -1.00  1.00
E''    2.00 -1.00  0.00 -2.00  1.00  0.00

     the symmetry operations in each class and the name of the first element:

     E        1
          identity                                               
     2C3      3    4
          120 deg rotation - cryst. axis [0,0,1]                 
     3C2      2    6    5
          180 deg rotation - cart. axis [0,1,0]                  
     s_h      7
          inv. 180 deg rotation - cart. axis [0,0,1]             
     2S3      9   10
          inv.  60 deg rotation - cryst. axis [0,0,1]            
     3s_v     8   11   12
          inv. 180 deg rotation - cart. axis [1,0,0]             

   Cartesian axes

     site n.     atom                  positions (alat units)
         1           Mo  tau(   1) = (   0.5000000   0.2886751   3.1641564  )
         2           S   tau(   2) = (  -0.0000000   0.5773503   2.6623038  )
         3           S   tau(   3) = (  -0.0000000   0.5773503   3.6660090  )

   Crystallographic axes

     site n.     atom                  positions (cryst. coord.)
         1           Mo  tau(   1) = (  0.6666667  0.3333333  0.5000000  )
         2           S   tau(   2) = (  0.3333333  0.6666667  0.4206973  )
         3           S   tau(   3) = (  0.3333333  0.6666667  0.5793027  )

     number of k points=    31  Fermi-Dirac smearing, width (Ry)=  0.0036
                       cart. coord. in units 2pi/alat
        k(    1) = (   0.0000000   0.0000000   0.0000000), wk =   0.0645161
        k(    2) = (   0.0000000   0.0577350   0.0000000), wk =   0.0645161
        k(    3) = (   0.0000000   0.1154701   0.0000000), wk =   0.0645161
        k(    4) = (   0.0000000   0.1732051   0.0000000), wk =   0.0645161
        k(    5) = (   0.0000000   0.2309401   0.0000000), wk =   0.0645161
        k(    6) = (   0.0000000   0.2886751   0.0000000), wk =   0.0645161
        k(    7) = (   0.0000000   0.3464102   0.0000000), wk =   0.0645161
        k(    8) = (   0.0000000   0.4041452   0.0000000), wk =   0.0645161
        k(    9) = (   0.0000000   0.4618802   0.0000000), wk =   0.0645161
        k(   10) = (   0.0000000   0.5196152   0.0000000), wk =   0.0645161
        k(   11) = (   0.0000000   0.5773503   0.0000000), wk =   0.0645161
        k(   12) = (   0.0330000   0.5767729   0.0000000), wk =   0.0645161
        k(   13) = (   0.0660000   0.5761956   0.0000000), wk =   0.0645161
        k(   14) = (   0.0990000   0.5756182   0.0000000), wk =   0.0645161
        k(   15) = (   0.1320000   0.5750409   0.0000000), wk =   0.0645161
        k(   16) = (   0.1650000   0.5744635   0.0000000), wk =   0.0645161
        k(   17) = (   0.1980000   0.5738862   0.0000000), wk =   0.0645161
        k(   18) = (   0.2310000   0.5733088   0.0000000), wk =   0.0645161
        k(   19) = (   0.2640000   0.5727315   0.0000000), wk =   0.0645161
        k(   20) = (   0.2970000   0.5721541   0.0000000), wk =   0.0645161
        k(   21) = (   0.3300000   0.5715768   0.0000000), wk =   0.0645161
        k(   22) = (   0.2970000   0.5144191   0.0000000), wk =   0.0645161
        k(   23) = (   0.2640000   0.4572614   0.0000000), wk =   0.0645161
        k(   24) = (   0.2310000   0.4001037   0.0000000), wk =   0.0645161
        k(   25) = (   0.1980000   0.3429461   0.0000000), wk =   0.0645161
        k(   26) = (   0.1650000   0.2857884   0.0000000), wk =   0.0645161
        k(   27) = (   0.1320000   0.2286307   0.0000000), wk =   0.0645161
        k(   28) = (   0.0990000   0.1714730   0.0000000), wk =   0.0645161
        k(   29) = (   0.0660000   0.1143154   0.0000000), wk =   0.0645161
        k(   30) = (   0.0330000   0.0571577   0.0000000), wk =   0.0645161
        k(   31) = (   0.0000000   0.0000000   0.0000000), wk =   0.0645161

                       cryst. coord.
        k(    1) = (   0.0000000   0.0000000   0.0000000), wk =   0.0645161
        k(    2) = (   0.0000000   0.0500000   0.0000000), wk =   0.0645161
        k(    3) = (   0.0000000   0.1000000   0.0000000), wk =   0.0645161
        k(    4) = (   0.0000000   0.1500000   0.0000000), wk =   0.0645161
        k(    5) = (   0.0000000   0.2000000   0.0000000), wk =   0.0645161
        k(    6) = (   0.0000000   0.2500000   0.0000000), wk =   0.0645161
        k(    7) = (   0.0000000   0.3000000   0.0000000), wk =   0.0645161
        k(    8) = (   0.0000000   0.3500000   0.0000000), wk =   0.0645161
        k(    9) = (   0.0000000   0.4000000   0.0000000), wk =   0.0645161
        k(   10) = (   0.0000000   0.4500000   0.0000000), wk =   0.0645161
        k(   11) = (   0.0000000   0.5000000   0.0000000), wk =   0.0645161
        k(   12) = (   0.0330000   0.4830000   0.0000000), wk =   0.0645161
        k(   13) = (   0.0660000   0.4660000   0.0000000), wk =   0.0645161
        k(   14) = (   0.0990000   0.4490000   0.0000000), wk =   0.0645161
        k(   15) = (   0.1320000   0.4320000   0.0000000), wk =   0.0645161
        k(   16) = (   0.1650000   0.4150000   0.0000000), wk =   0.0645161
        k(   17) = (   0.1980000   0.3980000   0.0000000), wk =   0.0645161
        k(   18) = (   0.2310000   0.3810000   0.0000000), wk =   0.0645161
        k(   19) = (   0.2640000   0.3640000   0.0000000), wk =   0.0645161
        k(   20) = (   0.2970000   0.3470000   0.0000000), wk =   0.0645161
        k(   21) = (   0.3300000   0.3300000   0.0000000), wk =   0.0645161
        k(   22) = (   0.2970000   0.2970000   0.0000000), wk =   0.0645161
        k(   23) = (   0.2640000   0.2640000   0.0000000), wk =   0.0645161
        k(   24) = (   0.2310000   0.2310000   0.0000000), wk =   0.0645161
        k(   25) = (   0.1980000   0.1980000   0.0000000), wk =   0.0645161
        k(   26) = (   0.1650000   0.1650000   0.0000000), wk =   0.0645161
        k(   27) = (   0.1320000   0.1320000   0.0000000), wk =   0.0645161
        k(   28) = (   0.0990000   0.0990000   0.0000000), wk =   0.0645161
        k(   29) = (   0.0660000   0.0660000   0.0000000), wk =   0.0645161
        k(   30) = (   0.0330000   0.0330000   0.0000000), wk =   0.0645161
        k(   31) = (   0.0000000   0.0000000   0.0000000), wk =   0.0645161

     Dense  grid:   102641 G-vectors     FFT dimensions: (  36,  36, 216)

     Smooth grid:    26003 G-vectors     FFT dimensions: (  24,  24, 135)

     Dynamical RAM for                 wfc:       0.10 MB

     Dynamical RAM for     wfc (w. buffer):       0.10 MB

     Dynamical RAM for           str. fact:       0.39 MB

     Dynamical RAM for           local pot:       0.00 MB

     Dynamical RAM for          nlocal pot:       0.33 MB

     Dynamical RAM for                qrad:       2.64 MB

     Dynamical RAM for          rho,v,vnew:       1.39 MB

     Dynamical RAM for           G-vectors:       0.76 MB

     Dynamical RAM for          h,s,v(r/c):       0.05 MB

     Dynamical RAM for          <psi|beta>:       0.01 MB

     Dynamical RAM for                 psi:       0.42 MB

     Dynamical RAM for                hpsi:       0.42 MB

     Dynamical RAM for                spsi:       0.42 MB

     Dynamical RAM for      wfcinit/wfcrot:       0.27 MB

     Dynamical RAM for           addusdens:      36.81 MB

     Estimated static dynamical RAM per process >       7.54 MB

     Estimated max dynamical RAM per process >      44.35 MB

     Estimated total dynamical RAM >     354.80 MB

     Check: negative core charge=   -0.000002

     The potential is recalculated from file :
     ./SCF-Bands.save/charge-density


     negative rho (up, down):  2.292E-03 0.000E+00
     Starting wfcs are   21 randomized atomic wfcs
     Checking if some PAW data can be deallocated... 
       PAW data deallocated on    5 nodes for type:  1

     Band Structure Calculation
     Davidson diagonalization with overlap

     Computing kpt #:     1
     total cpu time spent up to now is        2.1 secs

     Computing kpt #:     2
     total cpu time spent up to now is        2.2 secs

     Computing kpt #:     3
     total cpu time spent up to now is        2.3 secs

     Computing kpt #:     4
     total cpu time spent up to now is        2.4 secs

     Computing kpt #:     5
     total cpu time spent up to now is        2.5 secs

     Computing kpt #:     6
     total cpu time spent up to now is        2.6 secs

     Computing kpt #:     7
     total cpu time spent up to now is        2.7 secs

     Computing kpt #:     8
     total cpu time spent up to now is        2.8 secs

     Computing kpt #:     9
     total cpu time spent up to now is        2.9 secs

     Computing kpt #:    10
     total cpu time spent up to now is        3.0 secs

     Computing kpt #:    11
     total cpu time spent up to now is        3.1 secs

     Computing kpt #:    12
     total cpu time spent up to now is        3.2 secs

     Computing kpt #:    13
     total cpu time spent up to now is        3.3 secs

     Computing kpt #:    14
     total cpu time spent up to now is        3.4 secs

     Computing kpt #:    15
     total cpu time spent up to now is        3.5 secs

     Computing kpt #:    16
     total cpu time spent up to now is        3.6 secs

     Computing kpt #:    17
     total cpu time spent up to now is        3.7 secs

     Computing kpt #:    18
     total cpu time spent up to now is        3.8 secs

     Computing kpt #:    19
     total cpu time spent up to now is        3.9 secs

     Computing kpt #:    20
     total cpu time spent up to now is        4.0 secs

     Computing kpt #:    21
     total cpu time spent up to now is        4.0 secs

     Computing kpt #:    22
     total cpu time spent up to now is        4.1 secs

     Computing kpt #:    23
     total cpu time spent up to now is        4.2 secs

     Computing kpt #:    24
     total cpu time spent up to now is        4.3 secs

     Computing kpt #:    25
     total cpu time spent up to now is        4.5 secs

     Computing kpt #:    26
     total cpu time spent up to now is        4.5 secs

     Computing kpt #:    27
     total cpu time spent up to now is        4.6 secs

     Computing kpt #:    28
     total cpu time spent up to now is        4.7 secs

     Computing kpt #:    29
     total cpu time spent up to now is        4.8 secs

     Computing kpt #:    30
     total cpu time spent up to now is        4.9 secs

     Computing kpt #:    31
     total cpu time spent up to now is        4.9 secs

     ethr =  3.85E-08,  avg # of iterations = 11.4

     total cpu time spent up to now is        4.9 secs

     End of band structure calculation

          k = 0.0000 0.0000 0.0000 (  3221 PWs)   bands (ev):

   -61.7829 -35.9199 -35.6844 -35.6844 -14.9901 -13.7407  -6.5105  -3.3711
    -3.3711  -2.7537  -2.2615  -2.2615  -1.0302   1.9425   1.9425   2.1218
     2.1218

          k = 0.0000 0.0577 0.0000 (  3219 PWs)   bands (ev):

   -61.7819 -35.9179 -35.6942 -35.6866 -14.9520 -13.7242  -6.4655  -3.4599
    -3.3307  -2.9409  -2.3248  -2.1326  -1.0423   1.8801   2.0034   2.0082
     2.0790

          k = 0.0000 0.1155 0.0000 (  3231 PWs)   bands (ev):

   -61.7790 -35.9124 -35.7227 -35.6930 -14.8397 -13.6755  -6.3366  -3.7023
    -3.2841  -3.2127  -2.4969  -1.9808  -1.0913   1.7253   1.7593   1.9620
     2.1846

          k = 0.0000 0.1732 0.0000 (  3237 PWs)   bands (ev):

   -61.7746 -35.9037 -35.7670 -35.7032 -14.6594 -13.5972  -6.1463  -4.0375
    -3.6645  -3.0267  -2.7374  -1.9541  -1.2085   1.4351   1.7103   1.8005
     2.4238

          k = 0.0000 0.2309 0.0000 (  3215 PWs)   bands (ev):

   -61.7689 -35.8926 -35.8224 -35.7158 -14.4216 -13.4940  -5.9458  -4.3858
    -4.0597  -3.0050  -2.7889  -2.0659  -1.4138   1.2511   1.6313   1.8090
     2.6762

          k = 0.0000 0.2887 0.0000 (  3233 PWs)   bands (ev):

   -61.7627 -35.8833 -35.8804 -35.7299 -14.1419 -13.3736  -5.8413  -4.6456
    -4.4593  -3.2683  -2.5243  -2.2590  -1.6640   1.2160   1.4874   2.0361
     2.9047

          k = 0.0000 0.3464 0.0000 (  3251 PWs)   bands (ev):

   -61.7565 -35.9437 -35.8682 -35.7441 -13.8407 -13.2454  -5.9404  -4.8469
    -4.7438  -3.5051  -2.4621  -2.2621  -1.8499   1.3044   1.3943   2.3247
     3.0893

          k = 0.0000 0.4041 0.0000 (  3259 PWs)   bands (ev):

   -61.7508 -35.9976 -35.8571 -35.7567 -13.5454 -13.1221  -6.1801  -5.1968
    -4.7780  -3.7011  -2.6318  -2.0341  -1.8767   1.3631   1.4694   2.6051
     3.2240

          k = 0.0000 0.4619 0.0000 (  3269 PWs)   bands (ev):

   -61.7464 -36.0400 -35.8484 -35.7667 -13.2905 -13.0182  -6.4302  -5.4777
    -4.8430  -3.8467  -2.7524  -1.8643  -1.7554   1.3830   1.6665   2.8238
     3.3125

          k = 0.0000 0.5196 0.0000 (  3277 PWs)   bands (ev):

   -61.7435 -36.0671 -35.8427 -35.7732 -13.1148 -12.9484  -6.6111  -5.6604
    -4.9152  -3.9362  -2.8226  -1.7631  -1.5997   1.4215   1.8421   2.9542
     3.3618

          k = 0.0000 0.5774 0.0000 (  3256 PWs)   bands (ev):

   -61.7424 -36.0763 -35.8407 -35.7753 -13.0515 -12.9235  -6.6767  -5.7235
    -4.9452  -3.9663  -2.8452  -1.7296  -1.5302   1.4401   1.9173   2.9964
     3.3774

          k = 0.0330 0.5768 0.0000 (  3262 PWs)   bands (ev):

   -61.7423 -36.0750 -35.8405 -35.7780 -13.0459 -12.9199  -6.6605  -5.7340
    -4.9389  -3.9747  -2.8406  -1.8723  -1.4447   1.4437   1.9249   3.0209
     3.3239

          k = 0.0660 0.5762 0.0000 (  3260 PWs)   bands (ev):

   -61.7420 -36.0711 -35.8399 -35.7859 -13.0294 -12.9092  -6.6121  -5.7651
    -4.9205  -3.9952  -2.8298  -2.1345  -1.3452   1.4484   1.9506   3.0815
     3.1910

          k = 0.0990 0.5756 0.0000 (  3236 PWs)   bands (ev):

   -61.7414 -36.0646 -35.8389 -35.7986 -13.0030 -12.8923  -6.5325  -5.8166
    -4.8918  -4.0164  -2.8212  -2.4523  -1.2725   1.4395   2.0021   2.9633
     3.2244

          k = 0.1320 0.5750 0.0000 (  3242 PWs)   bands (ev):

   -61.7408 -36.0559 -35.8376 -35.8156 -12.9687 -12.8704  -6.4239  -5.8869
    -4.8564  -4.0269  -2.8240  -2.8074  -1.2167   1.4034   2.0827   2.7500
     3.3655

          k = 0.1650 0.5745 0.0000 (  3242 PWs)   bands (ev):

   -61.7401 -36.0449 -35.8362 -35.8359 -12.9288 -12.8451  -6.2887  -5.9705
    -4.8177  -4.0187  -3.1806  -2.8447  -1.1638   1.3374   2.1876   2.5449
     3.5245

          k = 0.1980 0.5739 0.0000 (  3240 PWs)   bands (ev):

   -61.7393 -36.0320 -35.8585 -35.8347 -12.8864 -12.8186  -6.1304  -6.0600
    -4.7817  -3.9888  -3.5538  -2.8861  -1.1048   1.2466   2.3063   2.3680
     3.6828

          k = 0.2310 0.5733 0.0000 (  3225 PWs)   bands (ev):

   -61.7385 -36.0174 -35.8820 -35.8333 -12.8450 -12.7933  -6.1457  -5.9542
    -4.7585  -3.9402  -3.9034  -2.9463  -1.0360   1.1420   2.2300   2.4262
     3.8240

          k = 0.2640 0.5727 0.0000 (  3230 PWs)   bands (ev):

   -61.7379 -36.0020 -35.9052 -35.8321 -12.8092 -12.7718  -6.2182  -5.7689
    -4.7720  -4.1918  -3.8808  -3.0175  -0.9631   1.0386   2.1343   2.5332
     3.9343

          k = 0.2970 0.5722 0.0000 (  3232 PWs)   bands (ev):

   -61.7374 -35.9872 -35.9253 -35.8313 -12.7835 -12.7568  -6.2682  -5.5952
    -4.8551  -4.3583  -3.8251  -3.0829  -0.9010   0.9573   2.0800   2.6119
     4.0042

          k = 0.3300 0.5716 0.0000 (  3211 PWs)   bands (ev):

   -61.7372 -35.9788 -35.9357 -35.8309 -12.7723 -12.7506  -6.2886  -5.4982
    -4.9378  -4.4010  -3.7968  -3.1155  -0.8715   0.9218   2.0620   2.6460
     4.0301

          k = 0.2970 0.5144 0.0000 (  3223 PWs)   bands (ev):

   -61.7381 -35.9973 -35.9069 -35.8325 -12.8269 -12.7789  -6.1966  -5.7484
    -4.6596  -4.3060  -3.9095  -2.9736  -1.0013   1.0591   2.1076   2.4914
     3.9443

          k = 0.2640 0.4573 0.0000 (  3217 PWs)   bands (ev):

   -61.7407 -36.0065 -35.8672 -35.8375 -12.9843 -12.8558  -5.9540  -5.9439
    -4.4760  -4.0869  -3.9682  -2.7010  -1.2546   1.2643   2.1478   2.1570
     3.7807

          k = 0.2310 0.4001 0.0000 (  3231 PWs)   bands (ev):

   -61.7451 -35.9947 -35.8461 -35.8276 -13.2408 -12.9744  -5.9857  -5.5421
    -4.4784  -4.2094  -3.4987  -2.4057  -1.4851   1.2577   1.8544   2.1197
     3.6207

          k = 0.1980 0.3429 0.0000 (  3225 PWs)   bands (ev):

   -61.7509 -35.9614 -35.8576 -35.7910 -13.5666 -13.1198  -5.8797  -5.0294
    -4.5804  -4.2177  -3.0537  -2.1416  -1.6321   1.0581   1.7126   1.9769
     3.4677

          k = 0.1650 0.2858 0.0000 (  3243 PWs)   bands (ev):

   -61.7580 -35.9108 -35.8713 -35.7589 -13.9208 -13.2754  -5.7618  -4.6674
    -4.4979  -4.0466  -2.7518  -1.9442  -1.6734   0.9846   1.6040   1.7943
     3.2563

          k = 0.1320 0.2286 0.0000 (  3243 PWs)   bands (ev):

   -61.7654 -35.8857 -35.8496 -35.7321 -14.2639 -13.4250  -5.8253  -4.5316
    -4.1064  -3.5968  -2.7503  -1.8338  -1.5197   1.0999   1.5819   1.6544
     2.9562

          k = 0.0990 0.1715 0.0000 (  3239 PWs)   bands (ev):

   -61.7723 -35.8991 -35.7872 -35.7112 -14.5633 -13.5553  -6.0499  -4.1831
    -3.7602  -3.0541  -2.9512  -1.8218  -1.2788   1.3260   1.6177   1.7097
     2.6030

          k = 0.0660 0.1143 0.0000 (  3245 PWs)   bands (ev):

   -61.7780 -35.9102 -35.7335 -35.6962 -14.7946 -13.6559  -6.2864  -3.7904
    -3.3752  -3.1688  -2.6139  -1.9143  -1.1156   1.6416   1.7063   1.9093
     2.2684

          k = 0.0330 0.0572 0.0000 (  3215 PWs)   bands (ev):

   -61.7815 -35.9174 -35.6971 -35.6873 -14.9403 -13.7191  -6.4518  -3.4861
    -3.3185  -2.9848  -2.3476  -2.1030  -1.0464   1.8618   1.9708   2.0292
     2.0654

          k = 0.0000 0.0000 0.0000 (  3221 PWs)   bands (ev):

   -61.7829 -35.9199 -35.6844 -35.6844 -14.9901 -13.7407  -6.5105  -3.3711
    -3.3711  -2.7537  -2.2615  -2.2615  -1.0302   1.9425   1.9425   2.1218
     2.1218

     Writing output data file SCF-Bands.save/
 
     init_run     :      0.74s CPU      0.78s WALL (       1 calls)
     electrons    :      2.85s CPU      3.00s WALL (       1 calls)

     Called by init_run:
     wfcinit      :      0.00s CPU      0.00s WALL (       1 calls)
     wfcinit:atom :      0.00s CPU      0.00s WALL (      31 calls)
     wfcinit:wfcr :      0.22s CPU      0.24s WALL (      31 calls)
     potinit      :      0.09s CPU      0.10s WALL (       1 calls)
     hinit0       :      0.36s CPU      0.38s WALL (       1 calls)

     Called by electrons:
     c_bands      :      2.85s CPU      3.00s WALL (       1 calls)
     v_of_rho     :      0.02s CPU      0.02s WALL (       1 calls)
     v_h          :      0.00s CPU      0.00s WALL (       1 calls)
     v_xc         :      0.02s CPU      0.02s WALL (       1 calls)
     newd         :      0.07s CPU      0.08s WALL (       1 calls)
     PAW_pot      :      0.07s CPU      0.07s WALL (       1 calls)

     Called by c_bands:
     init_us_2    :      0.01s CPU      0.01s WALL (      31 calls)
     cegterg      :      2.55s CPU      2.68s WALL (      31 calls)

     Called by sum_band:

     Called by *egterg:
     h_psi        :      1.46s CPU      1.55s WALL (     416 calls)
     s_psi        :      0.07s CPU      0.07s WALL (     416 calls)
     g_psi        :      0.02s CPU      0.02s WALL (     354 calls)
     cdiaghg      :      0.77s CPU      0.81s WALL (     385 calls)
     cegterg:over :      0.19s CPU      0.19s WALL (     354 calls)
     cegterg:upda :      0.12s CPU      0.12s WALL (     354 calls)
     cegterg:last :      0.08s CPU      0.08s WALL (      93 calls)
     cdiaghg:chol :      0.04s CPU      0.04s WALL (     385 calls)
     cdiaghg:inve :      0.01s CPU      0.01s WALL (     385 calls)
     cdiaghg:para :      0.07s CPU      0.07s WALL (     770 calls)

     Called by h_psi:
     h_psi:pot    :      1.45s CPU      1.54s WALL (     416 calls)
     h_psi:calbec :      0.10s CPU      0.11s WALL (     416 calls)
     vloc_psi     :      1.27s CPU      1.36s WALL (     416 calls)
     add_vuspsi   :      0.07s CPU      0.07s WALL (     416 calls)

     General routines
     calbec       :      0.10s CPU      0.11s WALL (     416 calls)
     fft          :      0.02s CPU      0.02s WALL (      13 calls)
     ffts         :      0.00s CPU      0.00s WALL (       1 calls)
     fftw         :      1.16s CPU      1.24s WALL (   11134 calls)
     interpolate  :      0.00s CPU      0.00s WALL (       1 calls)
     davcio       :      0.00s CPU      0.00s WALL (      62 calls)
 
     Parallel routines
     fft_scatt_xy :      0.12s CPU      0.13s WALL (   11148 calls)
     fft_scatt_yz :      0.41s CPU      0.44s WALL (   11148 calls)

     PAW routines
     PAW_pot      :      0.07s CPU      0.07s WALL (       1 calls)
 
     PWSCF        :      4.73s CPU      5.11s WALL

 
   This run was terminated on:  14: 9:50  26Mar2019            

=------------------------------------------------------------------------------=
   JOB DONE.
=------------------------------------------------------------------------------=
